# vtk DataFile Version 3.0
Point representing Sub_cellular elem model
ASCII

DATASET UNSTRUCTURED_GRID
POINTS 21 float
-2.00248 -0.00136 -0.00136 
-1.00301 -0.00074 -0.00074 
-0.01048 0.00478 0.00478 
0.99617 -0.00055 -0.00055 
1.99816 -0.00088 -0.00088 
2.99946 0.00037 0.00037 
-1.75212 -0.00393 -0.00393 
-1.50224 0.00339 0.00339 
-1.25206 0.00255 0.00255 
-0.75396 0.00075 0.00075 
-0.50563 0.00019 0.00019 
-0.25750 0.00091 0.00091 
0.24074 0.00342 0.00342 
0.49269 0.00126 0.00126 
0.74500 0.00142 0.00142 
1.24751 -0.00048 -0.00048 
1.49765 -0.00265 -0.00265 
1.74827 -0.00425 -0.00425 
2.24854 -0.00411 -0.00411 
2.49920 0.00316 0.00316 
2.74948 0.00218 0.00218 
CELLS 20 60
2 0 6
2 1 8
2 1 9
2 2 11
2 2 12
2 3 14
2 3 15
2 4 17
2 4 18
2 5 20
2 6 7
2 7 8
2 9 10
2 10 11
2 12 13
2 13 14
2 15 16
2 16 17
2 18 19
2 19 20
CELL_TYPES 20
3
3
3
3
3
3
3
3
3
3
3
3
3
3
3
3
3
3
3
3
CELL_DATA 20
SCALARS magnitude double 
LOOKUP_TABLE default 
0.00154
-0.00364
-0.00375
-0.01165
0.00488
0.00475
0.00536
-0.00028
0.00170
-0.00002
0.00038
0.00073
-0.00669
-0.00748
0.00788
0.00924
0.00062
0.00255
0.00348
0.00111
