# vtk DataFile Version 3.0
Point representing Sub_cellular elem model
ASCII

DATASET UNSTRUCTURED_GRID
POINTS 21 float
-2.00050 -0.00140 -0.00140 
-0.99995 -0.00005 -0.00005 
-0.00051 0.00258 0.00258 
0.99915 -0.00121 -0.00121 
1.99927 -0.00101 -0.00101 
3.00030 -0.00010 -0.00010 
-1.75004 0.00014 0.00014 
-1.50022 -0.00036 -0.00036 
-1.25017 0.00110 0.00110 
-0.74987 -0.00009 -0.00009 
-0.50017 0.00008 0.00008 
-0.25040 0.00106 0.00106 
0.24951 -0.00027 -0.00027 
0.49933 -0.00058 -0.00058 
0.74944 -0.00100 -0.00100 
1.24942 -0.00029 -0.00029 
1.49901 -0.00239 -0.00239 
1.74945 0.00078 0.00078 
2.24946 -0.00074 -0.00074 
2.49930 0.00071 0.00071 
2.74963 -0.00095 -0.00095 
CELLS 20 60
2 0 6
2 1 8
2 1 9
2 2 11
2 2 12
2 3 14
2 3 15
2 4 17
2 4 18
2 5 20
2 6 7
2 7 8
2 9 10
2 10 11
2 12 13
2 13 14
2 15 16
2 16 17
2 18 19
2 19 20
CELL_TYPES 20
3
3
3
3
3
3
3
3
3
3
3
3
3
3
3
3
3
3
3
3
CELL_DATA 20
SCALARS magnitude double 
LOOKUP_TABLE default 
0.00185
0.00091
0.00034
-0.00040
0.00024
-0.00114
0.00108
-0.00064
0.00076
0.00272
-0.00071
0.00023
-0.00122
-0.00091
-0.00073
0.00044
-0.00157
0.00190
-0.00060
0.00134
