# vtk DataFile Version 3.0
Point representing Sub_cellular elem model
ASCII

DATASET UNSTRUCTURED_GRID
POINTS 21 float
-2.00118 0.00099 0.00099 
-1.00293 -0.00139 -0.00139 
-0.00703 0.00579 0.00579 
0.99728 -0.00246 -0.00246 
1.99848 -0.00212 -0.00212 
2.99951 -0.00048 -0.00048 
-1.75091 -0.00424 -0.00424 
-1.50133 0.00324 0.00324 
-1.25270 0.00039 0.00039 
-0.75312 -0.00090 -0.00090 
-0.50391 -0.00125 -0.00125 
-0.25514 -0.00111 -0.00111 
0.24399 0.00038 0.00038 
0.49567 0.00287 0.00287 
0.74684 0.00274 0.00274 
1.24755 -0.00302 -0.00302 
1.49831 -0.00166 -0.00166 
1.74817 -0.00389 -0.00389 
2.24902 -0.00246 -0.00246 
2.49933 0.00306 0.00306 
2.74979 0.00158 0.00158 
CELLS 20 60
2 0 6
2 1 8
2 1 9
2 2 11
2 2 12
2 3 14
2 3 15
2 4 17
2 4 18
2 5 20
2 6 7
2 7 8
2 9 10
2 10 11
2 12 13
2 13 14
2 15 16
2 16 17
2 18 19
2 19 20
CELL_TYPES 20
3
3
3
3
3
3
3
3
3
3
3
3
3
3
3
3
3
3
3
3
CELL_DATA 20
SCALARS magnitude double 
LOOKUP_TABLE default 
0.00149
-0.00084
-0.00075
-0.00680
0.00455
0.00221
0.00107
0.00129
0.00216
-0.00105
-0.00079
-0.00534
-0.00318
-0.00491
0.00682
0.00467
0.00306
-0.00048
0.00174
0.00186
