# vtk DataFile Version 3.0
Point representing Sub_cellular elem model
ASCII

DATASET UNSTRUCTURED_GRID
POINTS 21 float
-2.00085 -0.00062 -0.00062 
-1.00138 -0.00037 -0.00037 
-0.00222 0.00232 0.00232 
0.99907 -0.00185 -0.00185 
1.99912 -0.00177 -0.00177 
2.99968 -0.00042 -0.00042 
-1.75035 -0.00205 -0.00205 
-1.50079 0.00087 0.00087 
-1.25089 -0.00024 -0.00024 
-0.75153 -0.00232 -0.00232 
-0.50223 -0.00105 -0.00105 
-0.25215 0.00227 0.00227 
0.24874 -0.00053 -0.00053 
0.49927 0.00083 0.00083 
0.74932 0.00104 0.00104 
1.24909 -0.00100 -0.00100 
1.49919 -0.00287 -0.00287 
1.74908 0.00050 0.00050 
2.24917 -0.00217 -0.00217 
2.50002 0.00229 0.00229 
2.74994 0.00022 0.00022 
CELLS 20 60
2 0 6
2 1 8
2 1 9
2 2 11
2 2 12
2 3 14
2 3 15
2 4 17
2 4 18
2 5 20
2 6 7
2 7 8
2 9 10
2 10 11
2 12 13
2 13 14
2 15 16
2 16 17
2 18 19
2 19 20
CELL_TYPES 20
3
3
3
3
3
3
3
3
3
3
3
3
3
3
3
3
3
3
3
3
CELL_DATA 20
SCALARS magnitude double 
LOOKUP_TABLE default 
0.00200
-0.00194
-0.00056
-0.00026
0.00395
-0.00084
0.00008
0.00023
0.00022
-0.00103
-0.00159
-0.00039
-0.00275
0.00046
0.00217
0.00018
0.00043
-0.00024
0.00372
-0.00028
