# vtk DataFile Version 3.0
Point representing Sub_cellular elem model
ASCII

DATASET UNSTRUCTURED_GRID
POINTS 21 float
-2.00207 -0.00069 -0.00069 
-1.00282 -0.00167 -0.00167 
-0.00933 0.00581 0.00581 
0.99731 -0.00066 -0.00066 
1.99881 -0.00025 -0.00025 
2.99946 0.00001 0.00001 
-1.75205 -0.00397 -0.00397 
-1.50204 0.00320 0.00320 
-1.25254 0.00181 0.00181 
-0.75388 0.00038 0.00038 
-0.50481 0.00004 0.00004 
-0.25703 0.00054 0.00054 
0.24189 0.00242 0.00242 
0.49361 0.00220 0.00220 
0.74516 0.00153 0.00153 
1.24774 -0.00108 -0.00108 
1.49779 -0.00254 -0.00254 
1.74852 -0.00415 -0.00415 
2.24876 -0.00352 -0.00352 
2.49922 0.00313 0.00313 
2.74909 0.00155 0.00155 
CELLS 20 60
2 0 6
2 1 8
2 1 9
2 2 11
2 2 12
2 3 14
2 3 15
2 4 17
2 4 18
2 5 20
2 6 7
2 7 8
2 9 10
2 10 11
2 12 13
2 13 14
2 15 16
2 16 17
2 18 19
2 19 20
CELL_TYPES 20
3
3
3
3
3
3
3
3
3
3
3
3
3
3
3
3
3
3
3
3
CELL_DATA 20
SCALARS magnitude double 
LOOKUP_TABLE default 
0.00028
-0.00092
-0.00418
-0.00875
0.00508
0.00867
0.00172
0.00138
-0.00003
0.00151
0.00084
-0.00194
-0.00371
-0.00889
0.00687
0.00623
0.00023
0.00297
0.00255
-0.00048
