# vtk DataFile Version 3.0
Point representing Sub_cellular elem model
ASCII

DATASET UNSTRUCTURED_GRID
POINTS 21 float
-2.00113 -0.00056 -0.00056 
-1.00180 -0.00114 -0.00114 
-0.00426 0.00304 0.00304 
0.99913 -0.00286 -0.00286 
1.99981 -0.00058 -0.00058 
2.99931 -0.00225 -0.00225 
-1.75087 -0.00301 -0.00301 
-1.50066 0.00182 0.00182 
-1.25099 0.00075 0.00075 
-0.75225 -0.00132 -0.00132 
-0.50313 -0.00127 -0.00127 
-0.25415 0.00135 0.00135 
0.24719 -0.00090 -0.00090 
0.49753 0.00128 0.00128 
0.74810 0.00146 0.00146 
1.24874 -0.00210 -0.00210 
1.49883 -0.00244 -0.00244 
1.74906 0.00008 0.00008 
2.24923 -0.00312 -0.00312 
2.49946 0.00307 0.00307 
2.74954 0.00130 0.00130 
CELLS 20 60
2 0 6
2 1 8
2 1 9
2 2 11
2 2 12
2 3 14
2 3 15
2 4 17
2 4 18
2 5 20
2 6 7
2 7 8
2 9 10
2 10 11
2 12 13
2 13 14
2 15 16
2 16 17
2 18 19
2 19 20
CELL_TYPES 20
3
3
3
3
3
3
3
3
3
3
3
3
3
3
3
3
3
3
3
3
CELL_DATA 20
SCALARS magnitude double 
LOOKUP_TABLE default 
0.00114
-0.00316
-0.00179
-0.00038
0.00603
0.00442
-0.00157
0.00299
-0.00222
-0.00073
0.00123
-0.00133
-0.00354
-0.00397
0.00144
0.00228
0.00036
0.00104
0.00154
0.00038
