# vtk DataFile Version 3.0
Point representing Sub_cellular elem model
ASCII

DATASET UNSTRUCTURED_GRID
POINTS 21 float
-2.00027 -0.00087 -0.00087 
-0.99926 0.00039 0.00039 
-0.00017 0.00123 0.00123 
0.99974 -0.00066 -0.00066 
1.99963 -0.00066 -0.00066 
2.99938 -0.00111 -0.00111 
-1.75004 -0.00029 -0.00029 
-1.50014 0.00045 0.00045 
-1.24968 0.00117 0.00117 
-0.74965 -0.00000 -0.00000 
-0.49970 0.00030 0.00030 
-0.24985 0.00116 0.00116 
0.24972 -0.00074 -0.00074 
0.49944 -0.00004 -0.00004 
0.74961 -0.00091 -0.00091 
1.24895 -0.00072 -0.00072 
1.49890 -0.00159 -0.00159 
1.74941 0.00008 0.00008 
2.24964 -0.00005 -0.00005 
2.50024 0.00123 0.00123 
2.74987 -0.00070 -0.00070 
CELLS 20 60
2 0 6
2 1 8
2 1 9
2 2 11
2 2 12
2 3 14
2 3 15
2 4 17
2 4 18
2 5 20
2 6 7
2 7 8
2 9 10
2 10 11
2 12 13
2 13 14
2 15 16
2 16 17
2 18 19
2 19 20
CELL_TYPES 20
3
3
3
3
3
3
3
3
3
3
3
3
3
3
3
3
3
3
3
3
CELL_DATA 20
SCALARS magnitude double 
LOOKUP_TABLE default 
0.00092
0.00169
-0.00154
-0.00130
-0.00037
0.00051
-0.00315
0.00089
0.00003
-0.00196
-0.00038
0.00183
-0.00020
-0.00057
-0.00113
0.00070
-0.00018
0.00209
0.00244
-0.00142
