# vtk DataFile Version 3.0
Point representing Sub_cellular elem model
ASCII

DATASET UNSTRUCTURED_GRID
POINTS 21 float
-2.00111 0.00071 0.00071 
-1.00228 -0.00130 -0.00130 
-0.00508 0.00554 0.00554 
0.99844 -0.00222 -0.00222 
1.99901 -0.00031 -0.00031 
2.99919 -0.00103 -0.00103 
-1.75117 -0.00480 -0.00480 
-1.50173 0.00272 0.00272 
-1.25173 0.00117 0.00117 
-0.75303 -0.00090 -0.00090 
-0.50300 -0.00083 -0.00083 
-0.25378 -0.00074 -0.00074 
0.24647 0.00064 0.00064 
0.49763 0.00337 0.00337 
0.74893 0.00448 0.00448 
1.24853 -0.00227 -0.00227 
1.49854 -0.00244 -0.00244 
1.74837 -0.00294 -0.00294 
2.24864 -0.00448 -0.00448 
2.49888 0.00201 0.00201 
2.74925 0.00172 0.00172 
CELLS 20 60
2 0 6
2 1 8
2 1 9
2 2 11
2 2 12
2 3 14
2 3 15
2 4 17
2 4 18
2 5 20
2 6 7
2 7 8
2 9 10
2 10 11
2 12 13
2 13 14
2 15 16
2 16 17
2 18 19
2 19 20
CELL_TYPES 20
3
3
3
3
3
3
3
3
3
3
3
3
3
3
3
3
3
3
3
3
CELL_DATA 20
SCALARS magnitude double 
LOOKUP_TABLE default 
0.00024
-0.00211
-0.00298
-0.00455
0.00660
-0.00121
0.00034
0.00269
-0.00122
-0.00012
-0.00132
0.00001
0.00013
-0.00314
0.00472
0.00522
0.00006
-0.00070
0.00165
0.00149
