# vtk DataFile Version 3.0
Point representing Sub_cellular elem model
ASCII

DATASET UNSTRUCTURED_GRID
POINTS 21 float
-2.00040 -0.00086 -0.00086 
-1.00043 -0.00051 -0.00051 
-0.00150 0.00184 0.00184 
0.99951 -0.00165 -0.00165 
1.99897 -0.00215 -0.00215 
3.00020 -0.00026 -0.00026 
-1.75021 -0.00052 -0.00052 
-1.50028 -0.00043 -0.00043 
-1.25094 0.00022 0.00022 
-0.75066 -0.00039 -0.00039 
-0.50064 -0.00011 -0.00011 
-0.25152 0.00126 0.00126 
0.24879 -0.00013 -0.00013 
0.49953 -0.00024 -0.00024 
0.74978 0.00026 0.00026 
1.24924 -0.00033 -0.00033 
1.49905 -0.00248 -0.00248 
1.74896 0.00067 0.00067 
2.24979 -0.00045 -0.00045 
2.50050 0.00203 0.00203 
2.75033 0.00021 0.00021 
CELLS 20 60
2 0 6
2 1 8
2 1 9
2 2 11
2 2 12
2 3 14
2 3 15
2 4 17
2 4 18
2 5 20
2 6 7
2 7 8
2 9 10
2 10 11
2 12 13
2 13 14
2 15 16
2 16 17
2 18 19
2 19 20
CELL_TYPES 20
3
3
3
3
3
3
3
3
3
3
3
3
3
3
3
3
3
3
3
3
CELL_DATA 20
SCALARS magnitude double 
LOOKUP_TABLE default 
0.00076
0.00203
-0.00089
0.00008
0.00121
-0.00104
-0.00106
0.00019
0.00331
-0.00052
-0.00025
-0.00264
0.00008
-0.00352
0.00298
0.00102
-0.00066
-0.00022
0.00294
-0.00061
