# vtk DataFile Version 3.0
Point representing Sub_cellular elem model
ASCII

DATASET UNSTRUCTURED_GRID
POINTS 21 float
-2.00062 0.00137 0.00137 
-1.00204 -0.00187 -0.00187 
-0.00436 0.00454 0.00454 
0.99857 -0.00188 -0.00188 
1.99850 -0.00074 -0.00074 
2.99919 -0.00119 -0.00119 
-1.75085 -0.00513 -0.00513 
-1.50134 0.00320 0.00320 
-1.25179 0.00096 0.00096 
-0.75248 0.00068 0.00068 
-0.50339 -0.00161 -0.00161 
-0.25396 -0.00057 -0.00057 
0.24669 -0.00023 -0.00023 
0.49755 0.00366 0.00366 
0.74858 0.00253 0.00253 
1.24871 -0.00240 -0.00240 
1.49832 -0.00281 -0.00281 
1.74802 -0.00249 -0.00249 
2.24882 -0.00525 -0.00525 
2.49859 0.00261 0.00261 
2.74890 0.00096 0.00096 
CELLS 20 60
2 0 6
2 1 8
2 1 9
2 2 11
2 2 12
2 3 14
2 3 15
2 4 17
2 4 18
2 5 20
2 6 7
2 7 8
2 9 10
2 10 11
2 12 13
2 13 14
2 15 16
2 16 17
2 18 19
2 19 20
CELL_TYPES 20
3
3
3
3
3
3
3
3
3
3
3
3
3
3
3
3
3
3
3
3
CELL_DATA 20
SCALARS magnitude double 
LOOKUP_TABLE default 
-0.00025
-0.00087
-0.00166
-0.00121
0.00458
0.00025
0.00058
0.00197
0.00159
0.00123
-0.00084
-0.00173
-0.00354
-0.00226
0.00365
0.00417
-0.00156
-0.00119
0.00008
0.00128
