# vtk DataFile Version 3.0
Point representing Sub_cellular elem model
ASCII

DATASET UNSTRUCTURED_GRID
POINTS 21 float
-2.00006 -0.00009 -0.00009 
-0.99959 -0.00012 -0.00012 
-0.00057 -0.00037 -0.00037 
0.99985 -0.00037 -0.00037 
1.99960 -0.00080 -0.00080 
2.99948 -0.00053 -0.00053 
-1.75006 -0.00012 -0.00012 
-1.49971 0.00024 0.00024 
-1.24995 0.00047 0.00047 
-0.74990 0.00063 0.00063 
-0.50009 -0.00043 -0.00043 
-0.25021 -0.00049 -0.00049 
0.24950 0.00050 0.00050 
0.49944 -0.00040 -0.00040 
0.74953 -0.00089 -0.00089 
1.25036 0.00070 0.00070 
1.49985 -0.00002 -0.00002 
1.75019 0.00035 0.00035 
2.24970 -0.00041 -0.00041 
2.49969 0.00016 0.00016 
2.75030 0.00004 0.00004 
CELLS 20 60
2 0 6
2 1 8
2 1 9
2 2 11
2 2 12
2 3 14
2 3 15
2 4 17
2 4 18
2 5 20
2 6 7
2 7 8
2 9 10
2 10 11
2 12 13
2 13 14
2 15 16
2 16 17
2 18 19
2 19 20
CELL_TYPES 20
3
3
3
3
3
3
3
3
3
3
3
3
3
3
3
3
3
3
3
3
CELL_DATA 20
SCALARS magnitude double 
LOOKUP_TABLE default 
-0.00002
0.00144
-0.00126
-0.00144
0.00033
0.00126
0.00206
-0.00235
0.00043
-0.00329
0.00143
-0.00096
-0.00073
-0.00049
-0.00026
0.00040
-0.00202
0.00136
-0.00003
0.00243
