# vtk DataFile Version 3.0
Point representing Sub_cellular elem model
ASCII

DATASET UNSTRUCTURED_GRID
POINTS 21 float
-2.00062 0.00089 0.00089 
-1.00182 -0.00128 -0.00128 
-0.00449 0.00384 0.00384 
0.99825 -0.00328 -0.00328 
1.99858 -0.00082 -0.00082 
2.99923 -0.00163 -0.00163 
-1.75117 -0.00489 -0.00489 
-1.50103 0.00285 0.00285 
-1.25103 0.00155 0.00155 
-0.75225 0.00024 0.00024 
-0.50325 -0.00155 -0.00155 
-0.25389 0.00003 0.00003 
0.24740 -0.00065 -0.00065 
0.49826 0.00453 0.00453 
0.74814 0.00182 0.00182 
1.24843 -0.00272 -0.00272 
1.49861 -0.00257 -0.00257 
1.74815 -0.00174 -0.00174 
2.24836 -0.00509 -0.00509 
2.49867 0.00239 0.00239 
2.74873 0.00082 0.00082 
CELLS 20 60
2 0 6
2 1 8
2 1 9
2 2 11
2 2 12
2 3 14
2 3 15
2 4 17
2 4 18
2 5 20
2 6 7
2 7 8
2 9 10
2 10 11
2 12 13
2 13 14
2 15 16
2 16 17
2 18 19
2 19 20
CELL_TYPES 20
3
3
3
3
3
3
3
3
3
3
3
3
3
3
3
3
3
3
3
3
CELL_DATA 20
SCALARS magnitude double 
LOOKUP_TABLE default 
-0.00168
-0.00303
-0.00168
-0.00215
0.00788
0.00087
0.00073
0.00175
-0.00060
0.00208
0.00155
0.00000
-0.00394
-0.00255
0.00388
-0.00038
0.00070
-0.00183
0.00216
0.00028
