# vtk DataFile Version 3.0
Point representing Sub_cellular elem model
ASCII

DATASET UNSTRUCTURED_GRID
POINTS 21 float
-2.00021 0.00051 0.00051 
-1.00151 -0.00112 -0.00112 
-0.00461 0.00293 0.00293 
0.99845 -0.00336 -0.00336 
1.99847 -0.00121 -0.00121 
2.99976 -0.00152 -0.00152 
-1.75084 -0.00347 -0.00347 
-1.50086 0.00206 0.00206 
-1.25118 0.00161 0.00161 
-0.75241 -0.00124 -0.00124 
-0.50320 -0.00062 -0.00062 
-0.25437 0.00037 0.00037 
0.24737 -0.00073 -0.00073 
0.49825 0.00315 0.00315 
0.74862 0.00228 0.00228 
1.24819 -0.00317 -0.00317 
1.49821 -0.00293 -0.00293 
1.74847 -0.00067 -0.00067 
2.24886 -0.00406 -0.00406 
2.49897 0.00266 0.00266 
2.74948 0.00125 0.00125 
CELLS 20 60
2 0 6
2 1 8
2 1 9
2 2 11
2 2 12
2 3 14
2 3 15
2 4 17
2 4 18
2 5 20
2 6 7
2 7 8
2 9 10
2 10 11
2 12 13
2 13 14
2 15 16
2 16 17
2 18 19
2 19 20
CELL_TYPES 20
3
3
3
3
3
3
3
3
3
3
3
3
3
3
3
3
3
3
3
3
CELL_DATA 20
SCALARS magnitude double 
LOOKUP_TABLE default 
-0.00227
-0.00120
-0.00361
-0.00087
0.00814
-0.00018
-0.00102
-0.00001
0.00169
0.00124
0.00040
-0.00126
-0.00315
-0.00467
0.00377
0.00149
0.00008
0.00111
0.00118
0.00207
