# vtk DataFile Version 3.0
Point representing Sub_cellular elem model
ASCII

DATASET UNSTRUCTURED_GRID
POINTS 21 float
-2.00153 0.00017 0.00017 
-1.00259 -0.00155 -0.00155 
-0.00789 0.00569 0.00569 
0.99702 -0.00183 -0.00183 
1.99880 -0.00066 -0.00066 
2.99959 -0.00012 -0.00012 
-1.75103 -0.00337 -0.00337 
-1.50175 0.00317 0.00317 
-1.25174 0.00227 0.00227 
-0.75312 0.00031 0.00031 
-0.50405 -0.00026 -0.00026 
-0.25593 0.00089 0.00089 
0.24284 0.00219 0.00219 
0.49442 0.00217 0.00217 
0.74609 0.00266 0.00266 
1.24787 -0.00152 -0.00152 
1.49795 -0.00243 -0.00243 
1.74832 -0.00424 -0.00424 
2.24889 -0.00313 -0.00313 
2.49911 0.00254 0.00254 
2.74913 0.00186 0.00186 
CELLS 20 60
2 0 6
2 1 8
2 1 9
2 2 11
2 2 12
2 3 14
2 3 15
2 4 17
2 4 18
2 5 20
2 6 7
2 7 8
2 9 10
2 10 11
2 12 13
2 13 14
2 15 16
2 16 17
2 18 19
2 19 20
CELL_TYPES 20
3
3
3
3
3
3
3
3
3
3
3
3
3
3
3
3
3
3
3
3
CELL_DATA 20
SCALARS magnitude double 
LOOKUP_TABLE default 
0.00223
-0.00316
-0.00205
-0.00749
0.00311
0.00403
0.00342
0.00212
0.00045
0.00189
-0.00220
0.00004
-0.00374
-0.00747
0.00633
0.00668
0.00035
0.00153
0.00138
0.00011
