# vtk DataFile Version 3.0
Point representing Sub_cellular elem model
ASCII

DATASET UNSTRUCTURED_GRID
POINTS 21 float
-2.00101 0.00115 0.00115 
-1.00232 -0.00145 -0.00145 
-0.00605 0.00553 0.00553 
0.99865 -0.00168 -0.00168 
1.99873 -0.00081 -0.00081 
2.99891 -0.00106 -0.00106 
-1.75178 -0.00563 -0.00563 
-1.50209 0.00206 0.00206 
-1.25233 0.00156 0.00156 
-0.75277 -0.00099 -0.00099 
-0.50376 -0.00089 -0.00089 
-0.25418 -0.00065 -0.00065 
0.24536 0.00104 0.00104 
0.49668 0.00340 0.00340 
0.74720 0.00285 0.00285 
1.24881 -0.00187 -0.00187 
1.49840 -0.00216 -0.00216 
1.74831 -0.00345 -0.00345 
2.24949 -0.00317 -0.00317 
2.49897 0.00231 0.00231 
2.74894 0.00100 0.00100 
CELLS 20 60
2 0 6
2 1 8
2 1 9
2 2 11
2 2 12
2 3 14
2 3 15
2 4 17
2 4 18
2 5 20
2 6 7
2 7 8
2 9 10
2 10 11
2 12 13
2 13 14
2 15 16
2 16 17
2 18 19
2 19 20
CELL_TYPES 20
3
3
3
3
3
3
3
3
3
3
3
3
3
3
3
3
3
3
3
3
CELL_DATA 20
SCALARS magnitude double 
LOOKUP_TABLE default 
-0.00235
0.00021
-0.00180
-0.00688
0.00598
0.00614
0.00066
0.00182
0.00314
-0.00005
-0.00030
-0.00097
-0.00397
-0.00168
0.00536
0.00206
-0.00166
-0.00035
-0.00161
-0.00009
