# vtk DataFile Version 3.0
Point representing Sub_cellular elem model
ASCII

DATASET UNSTRUCTURED_GRID
POINTS 21 float
-2.00029 -0.00054 -0.00054 
-1.00031 -0.00096 -0.00096 
-0.00017 0.00027 0.00027 
0.99908 -0.00113 -0.00113 
2.00001 -0.00031 -0.00031 
2.99922 -0.00083 -0.00083 
-1.75022 -0.00050 -0.00050 
-1.49956 0.00092 0.00092 
-1.24977 0.00073 0.00073 
-0.75041 -0.00009 -0.00009 
-0.50001 -0.00039 -0.00039 
-0.25002 0.00032 0.00032 
0.24976 0.00024 0.00024 
0.49958 -0.00014 -0.00014 
0.74958 -0.00121 -0.00121 
1.24935 0.00021 0.00021 
1.49946 -0.00093 -0.00093 
1.74991 0.00017 0.00017 
2.24962 -0.00006 -0.00006 
2.49949 0.00019 0.00019 
2.74941 -0.00137 -0.00137 
CELLS 20 60
2 0 6
2 1 8
2 1 9
2 2 11
2 2 12
2 3 14
2 3 15
2 4 17
2 4 18
2 5 20
2 6 7
2 7 8
2 9 10
2 10 11
2 12 13
2 13 14
2 15 16
2 16 17
2 18 19
2 19 20
CELL_TYPES 20
3
3
3
3
3
3
3
3
3
3
3
3
3
3
3
3
3
3
3
3
CELL_DATA 20
SCALARS magnitude double 
LOOKUP_TABLE default 
0.00028
-0.00210
-0.00040
-0.00060
-0.00027
-0.00202
0.00113
0.00043
-0.00158
-0.00077
0.00269
-0.00087
0.00161
-0.00003
-0.00072
0.00003
0.00043
0.00182
-0.00050
-0.00029
