# vtk DataFile Version 3.0
Point representing Sub_cellular elem model
ASCII

DATASET UNSTRUCTURED_GRID
POINTS 21 float
-1.99986 0.00009 0.00009 
-1.00102 -0.00066 -0.00066 
-0.00216 0.00201 0.00201 
0.99962 -0.00145 -0.00145 
1.99931 -0.00217 -0.00217 
3.00073 0.00013 0.00013 
-1.75073 -0.00180 -0.00180 
-1.50026 0.00064 0.00064 
-1.25049 0.00009 0.00009 
-0.75174 -0.00179 -0.00179 
-0.50198 -0.00107 -0.00107 
-0.25233 0.00131 0.00131 
0.24855 -0.00048 -0.00048 
0.49960 0.00033 0.00033 
0.74960 0.00058 0.00058 
1.24919 -0.00061 -0.00061 
1.49944 -0.00200 -0.00200 
1.74953 0.00077 0.00077 
2.24930 -0.00084 -0.00084 
2.50017 0.00198 0.00198 
2.75026 0.00064 0.00064 
CELLS 20 60
2 0 6
2 1 8
2 1 9
2 2 11
2 2 12
2 3 14
2 3 15
2 4 17
2 4 18
2 5 20
2 6 7
2 7 8
2 9 10
2 10 11
2 12 13
2 13 14
2 15 16
2 16 17
2 18 19
2 19 20
CELL_TYPES 20
3
3
3
3
3
3
3
3
3
3
3
3
3
3
3
3
3
3
3
3
CELL_DATA 20
SCALARS magnitude double 
LOOKUP_TABLE default 
-0.00343
-0.00210
-0.00287
0.00069
0.00295
0.00013
-0.00171
-0.00071
-0.00002
0.00187
0.00198
-0.00091
-0.00094
-0.00132
0.00419
0.00003
0.00102
0.00047
0.00362
0.00037
