# vtk DataFile Version 3.0
Point representing Sub_cellular elem model
ASCII

DATASET UNSTRUCTURED_GRID
POINTS 21 float
-2.00081 -0.00017 -0.00017 
-1.00138 -0.00112 -0.00112 
-0.00433 0.00248 0.00248 
0.99842 -0.00421 -0.00421 
1.99930 -0.00173 -0.00173 
2.99939 -0.00144 -0.00144 
-1.75072 -0.00301 -0.00301 
-1.50066 0.00141 0.00141 
-1.25084 0.00091 0.00091 
-0.75149 -0.00072 -0.00072 
-0.50243 -0.00124 -0.00124 
-0.25382 0.00160 0.00160 
0.24729 -0.00031 -0.00031 
0.49824 0.00155 0.00155 
0.74847 0.00138 0.00138 
1.24867 -0.00170 -0.00170 
1.49878 -0.00239 -0.00239 
1.74883 0.00004 0.00004 
2.24934 -0.00252 -0.00252 
2.49956 0.00290 0.00290 
2.74908 -0.00007 -0.00007 
CELLS 20 60
2 0 6
2 1 8
2 1 9
2 2 11
2 2 12
2 3 14
2 3 15
2 4 17
2 4 18
2 5 20
2 6 7
2 7 8
2 9 10
2 10 11
2 12 13
2 13 14
2 15 16
2 16 17
2 18 19
2 19 20
CELL_TYPES 20
3
3
3
3
3
3
3
3
3
3
3
3
3
3
3
3
3
3
3
3
CELL_DATA 20
SCALARS magnitude double 
LOOKUP_TABLE default 
0.00052
-0.00208
-0.00045
-0.00202
0.00659
0.00032
0.00110
0.00191
0.00019
0.00126
0.00053
-0.00071
-0.00374
-0.00543
0.00386
0.00092
0.00043
0.00031
0.00135
-0.00179
