# vtk DataFile Version 3.0
Point representing Sub_cellular elem model
ASCII

DATASET UNSTRUCTURED_GRID
POINTS 21 float
-2.00058 -0.00006 -0.00006 
-1.00120 -0.00046 -0.00046 
-0.00249 0.00345 0.00345 
0.99869 -0.00294 -0.00294 
1.99883 -0.00210 -0.00210 
2.99926 -0.00157 -0.00157 
-1.75106 -0.00306 -0.00306 
-1.50065 0.00129 0.00129 
-1.25110 -0.00031 -0.00031 
-0.75190 -0.00176 -0.00176 
-0.50215 -0.00118 -0.00118 
-0.25301 0.00180 0.00180 
0.24813 -0.00023 -0.00023 
0.49885 0.00127 0.00127 
0.74949 0.00192 0.00192 
1.24870 -0.00167 -0.00167 
1.49911 -0.00294 -0.00294 
1.74923 0.00089 0.00089 
2.24912 -0.00289 -0.00289 
2.49966 0.00257 0.00257 
2.74934 0.00043 0.00043 
CELLS 20 60
2 0 6
2 1 8
2 1 9
2 2 11
2 2 12
2 3 14
2 3 15
2 4 17
2 4 18
2 5 20
2 6 7
2 7 8
2 9 10
2 10 11
2 12 13
2 13 14
2 15 16
2 16 17
2 18 19
2 19 20
CELL_TYPES 20
3
3
3
3
3
3
3
3
3
3
3
3
3
3
3
3
3
3
3
3
CELL_DATA 20
SCALARS magnitude double 
LOOKUP_TABLE default 
-0.00176
-0.00041
-0.00278
0.00211
0.00272
-0.00282
0.00010
-0.00144
0.00114
-0.00024
0.00194
-0.00176
-0.00098
-0.00331
0.00292
0.00254
0.00164
0.00072
0.00263
-0.00120
