# vtk DataFile Version 3.0
Point representing Sub_cellular elem model
ASCII

DATASET UNSTRUCTURED_GRID
POINTS 21 float
-2.00166 0.00047 0.00047 
-1.00256 -0.00117 -0.00117 
-0.00755 0.00544 0.00544 
0.99725 -0.00209 -0.00209 
1.99868 -0.00167 -0.00167 
2.99947 -0.00033 -0.00033 
-1.75156 -0.00457 -0.00457 
-1.50165 0.00322 0.00322 
-1.25187 0.00139 0.00139 
-0.75325 -0.00034 -0.00034 
-0.50350 -0.00060 -0.00060 
-0.25521 0.00014 0.00014 
0.24388 0.00147 0.00147 
0.49521 0.00280 0.00280 
0.74645 0.00267 0.00267 
1.24804 -0.00167 -0.00167 
1.49784 -0.00262 -0.00262 
1.74850 -0.00387 -0.00387 
2.24887 -0.00232 -0.00232 
2.49902 0.00244 0.00244 
2.74904 0.00122 0.00122 
CELLS 20 60
2 0 6
2 1 8
2 1 9
2 2 11
2 2 12
2 3 14
2 3 15
2 4 17
2 4 18
2 5 20
2 6 7
2 7 8
2 9 10
2 10 11
2 12 13
2 13 14
2 15 16
2 16 17
2 18 19
2 19 20
CELL_TYPES 20
3
3
3
3
3
3
3
3
3
3
3
3
3
3
3
3
3
3
3
3
CELL_DATA 20
SCALARS magnitude double 
LOOKUP_TABLE default 
0.00080
-0.00266
-0.00275
-0.00893
0.00597
0.00358
0.00314
0.00079
0.00075
0.00176
0.00061
-0.00081
-0.00099
-0.00684
0.00534
0.00496
-0.00075
0.00266
0.00099
0.00009
